# vtk DataFile Version 2.0
ball_contact
ASCII
DATASET POLYDATA
POINTS 9802 float
0.0015864 0 0.0499748
0.00158327 9.96107e-05 0.0499748
0 0 0.05
0.00157389 0.000198828 0.0499748
0.0015583 0.000297261 0.0499748
0.00153656 0.000394521 0.0499748
0.00150875 0.000490224 0.0499748
0.00147499 0.000583992 0.0499748
0.00143541 0.000675455 0.0499748
0.00139017 0.000764252 0.0499748
0.00133944 0.000850034 0.0499748
0.00128342 0.000932461 0.0499748
0.00122234 0.00101121 0.0499748
0.00115643 0.00108596 0.0499748
0.00108596 0.00115643 0.0499748
0.00101121 0.00122234 0.0499748
0.000932461 0.00128342 0.0499748
0.000850034 0.00133944 0.0499748
0.000764252 0.00139017 0.0499748
0.000675455 0.00143541 0.0499748
0.000583992 0.00147499 0.0499748
0.000490224 0.00150875 0.0499748
0.000394521 0.00153656 0.0499748
0.000297261 0.0015583 0.0499748
0.000198828 0.00157389 0.0499748
9.96107e-05 0.00158327 0.0499748
-2.55112e-19 0.0015864 0.0499748
-9.96107e-05 0.00158327 0.0499748
-0.000198828 0.00157389 0.0499748
-0.000297261 0.0015583 0.0499748
-0.000394521 0.00153656 0.0499748
-0.000490224 0.00150875 0.0499748
-0.000583992 0.00147499 0.0499748
-0.000675455 0.00143541 0.0499748
-0.000764252 0.00139017 0.0499748
-0.000850034 0.00133944 0.0499748
-0.000932461 0.00128342 0.0499748
-0.00101121 0.00122234 0.0499748
-0.00108596 0.00115643 0.0499748
-0.00115643 0.00108596 0.0499748
-0.00122234 0.00101121 0.0499748
-0.00128342 0.000932461 0.0499748
-0.00133944 0.000850034 0.0499748
-0.00139017 0.000764252 0.0499748
-0.00143541 0.000675455 0.0499748
-0.00147499 0.000583992 0.0499748
-0.00150875 0.000490224 0.0499748
-0.00153656 0.000394521 0.0499748
-0.0015583 0.000297261 0.0499748
-0.00157389 0.000198828 0.0499748
-0.00158327 9.96107e-05 0.0499748
-0.0015864 -5.10224e-19 0.0499748
-0.00158327 -9.96107e-05 0.0499748
-0.00157389 -0.000198828 0.0499748
-0.0015583 -0.000297261 0.0499748
-0.00153656 -0.000394521 0.0499748
-0.00150875 -0.000490224 0.0499748
-0.00147499 -0.000583992 0.0499748
-0.00143541 -0.000675455 0.0499748
-0.00139017 -0.000764252 0.0499748
-0.00133944 -0.000850034 0.0499748
-0.00128342 -0.000932461 0.0499748
-0.00122234 -0.00101121 0.0499748
-0.00115643 -0.00108596 0.0499748
-0.00108596 -0.00115643 0.0499748
-0.00101121 -0.00122234 0.0499748
-0.000932461 -0.00128342 0.0499748
-0.000850034 -0.00133944 0.0499748
-0.000764252 -0.00139017 0.0499748
-0.000675455 -0.00143541 0.0499748
-0.000583992 -0.00147499 0.0499748
-0.000490224 -0.00150875 0.0499748
-0.000394521 -0.00153656 0.0499748
-0.000297261 -0.0015583 0.0499748
-0.000198828 -0.00157389 0.0499748
-9.96107e-05 -0.00158327 0.0499748
-2.91416e-19 -0.0015864 0.0499748
9.96107e-05 -0.00158327 0.0499748
0.000198828 -0.00157389 0.0499748
0.000297261 -0.0015583 0.0499748
0.000394521 -0.00153656 0.0499748
0.000490224 -0.00150875 0.0499748
0.000583992 -0.00147499 0.0499748
0.000675455 -0.00143541 0.0499748
0.000764252 -0.00139017 0.0499748
0.000850034 -0.00133944 0.0499748
0.000932461 -0.00128342 0.0499748
0.00101121 -0.00122234 0.0499748
0.00108596 -0.00115643 0.0499748
0.00115643 -0.00108596 0.0499748
0.00122234 -0.00101121 0.0499748
0.00128342 -0.000932461 0.0499748
0.00133944 -0.000850034 0.0499748
0.00139017 -0.000764252 0.0499748
0.00143541 -0.000675455 0.0499748
0.00147499 -0.000583992 0.0499748
0.00150875 -0.000490224 0.0499748
0.00153656 -0.000394521 0.0499748
0.0015583 -0.000297261 0.0499748
0.00157389 -0.000198828 0.0499748
0.00158327 -9.96107e-05 0.0499748
0.0015864 0 -0.0499748
0 0 -0.05
0.00158327 9.96107e-05 -0.0499748
0.00157389 0.000198828 -0.0499748
0.0015583 0.000297261 -0.0499748
0.00153656 0.000394521 -0.0499748
0.00150875 0.000490224 -0.0499748
0.00147499 0.000583992 -0.0499748
0.00143541 0.000675455 -0.0499748
0.00139017 0.000764252 -0.0499748
0.00133944 0.000850034 -0.0499748
0.00128342 0.000932461 -0.0499748
0.00122234 0.00101121 -0.0499748
0.00115643 0.00108596 -0.0499748
0.00108596 0.00115643 -0.0499748
0.00101121 0.00122234 -0.0499748
0.000932461 0.00128342 -0.0499748
0.000850034 0.00133944 -0.0499748
0.000764252 0.00139017 -0.0499748
0.000675455 0.00143541 -0.0499748
0.000583992 0.00147499 -0.0499748
0.000490224 0.00150875 -0.0499748
0.000394521 0.00153656 -0.0499748
0.000297261 0.0015583 -0.0499748
0.000198828 0.00157389 -0.0499748
9.96107e-05 0.00158327 -0.0499748
-2.55112e-19 0.0015864 -0.0499748
-9.96107e-05 0.00158327 -0.0499748
-0.000198828 0.00157389 -0.0499748
-0.000297261 0.0015583 -0.0499748
-0.000394521 0.00153656 -0.0499748
-0.000490224 0.00150875 -0.0499748
-0.000583992 0.00147499 -0.0499748
-0.000675455 0.00143541 -0.0499748
-0.000764252 0.00139017 -0.0499748
-0.000850034 0.00133944 -0.0499748
-0.000932461 0.00128342 -0.0499748
-0.00101121 0.00122234 -0.0499748
-0.00108596 0.00115643 -0.0499748
-0.00115643 0.00108596 -0.0499748
-0.00122234 0.00101121 -0.0499748
-0.00128342 0.000932461 -0.0499748
-0.00133944 0.000850034 -0.0499748
-0.00139017 0.000764252 -0.0499748
-0.00143541 0.000675455 -0.0499748
-0.00147499 0.000583992 -0.0499748
-0.00150875 0.000490224 -0.0499748
-0.00153656 0.000394521 -0.0499748
-0.0015583 0.000297261 -0.0499748
-0.00157389 0.000198828 -0.0499748
-0.00158327 9.96107e-05 -0.0499748
-0.0015864 -5.10224e-19 -0.0499748
-0.00158327 -9.96107e-05 -0.0499748
-0.00157389 -0.000198828 -0.0499748
-0.0015583 -0.000297261 -0.0499748
-0.00153656 -0.000394521 -0.0499748
-0.00150875 -0.000490224 -0.0499748
-0.00147499 -0.000583992 -0.0499748
-0.00143541 -0.000675455 -0.0499748
-0.00139017 -0.000764252 -0.0499748
-0.00133944 -0.000850034 -0.0499748
-0.00128342 -0.000932461 -0.0499748
-0.00122234 -0.00101121 -0.0499748
-0.00115643 -0.00108596 -0.0499748
-0.00108596 -0.00115643 -0.0499748
-0.00101121 -0.00122234 -0.0499748
-0.000932461 -0.00128342 -0.0499748
-0.000850034 -0.00133944 -0.0499748
-0.000764252 -0.00139017 -0.0499748
-0.000675455 -0.00143541 -0.0499748
-0.000583992 -0.00147499 -0.0499748
-0.000490224 -0.00150875 -0.0499748
-0.000394521 -0.00153656 -0.0499748
-0.000297261 -0.0015583 -0.0499748
-0.000198828 -0.00157389 -0.0499748
-9.96107e-05 -0.00158327 -0.0499748
-2.91416e-19 -0.0015864 -0.0499748
9.96107e-05 -0.00158327 -0.0499748
0.000198828 -0.00157389 -0.0499748
0.000297261 -0.0015583 -0.0499748
0.000394521 -0.00153656 -0.0499748
0.000490224 -0.00150875 -0.0499748
0.000583992 -0.00147499 -0.0499748
0.000675455 -0.00143541 -0.0499748
0.000764252 -0.00139017 -0.0499748
0.000850034 -0.00133944 -0.0499748
0.000932461 -0.00128342 -0.0499748
0.00101121 -0.00122234 -0.0499748
0.00108596 -0.00115643 -0.0499748
0.00115643 -0.00108596 -0.0499748
0.00122234 -0.00101121 -0.0499748
0.00128342 -0.000932461 -0.0499748
0.00133944 -0.000850034 -0.0499748
0.00139017 -0.000764252 -0.0499748
0.00143541 -0.000675455 -0.0499748
0.00147499 -0.000583992 -0.0499748
0.00150875 -0.000490224 -0.0499748
0.00153656 -0.000394521 -0.0499748
0.0015583 -0.000297261 -0.0499748
0.00157389 -0.000198828 -0.0499748
0.00158327 -9.96107e-05 -0.0499748
0.0031712 0 0.0498993
0.00316494 0.000199121 0.0498993
0.0047528 0 0.0497736
0.00474342 0.000298431 0.0497736
0.00632962 0 0.0495977
0.00631713 0.00039744 0.0495977
0.00790007 0 0.0493719
0.00788448 0.000496049 0.0493719
0.00946256 0 0.0490964
0.00944389 0.000594159 0.0490964
0.0110155 0 0.0487715
0.0109938 0.000691671 0.0487715
0.0125574 0 0.0483974
0.0125326 0.000788486 0.0483974
0.0140866 0 0.0479746
0.0140588 0.000884507 0.0479746
0.0156017 0 0.0475036
0.0155709 0.000979637 0.0475036
0.017101 0 0.0469846
0.0170673 0.00107378 0.0469846
0.0185831 0 0.0464184
0.0185465 0.00116684 0.0464184
0.0200465 0 0.0458054
0.020007 0.00125873 0.0458054
0.0214897 0 0.0451463
0.0214473 0.00134935 0.0451463
0.0229113 0 0.0444418
0.0228661 0.00143861 0.0444418
0.0243098 0 0.0436925
0.0242619 0.00152643 0.0436925
0.0256839 0 0.0428992
0.0256332 0.0016127 0.0428992
0.027032 0 0.0420627
0.0269787 0.00169736 0.0420627
0.028353 0 0.0411838
0.028297 0.0017803 0.0411838
0.0296454 0 0.0402635
0.0295869 0.00186145 0.0402635
0.0309079 0 0.0393027
0.030847 0.00194073 0.0393027
0.0321394 0 0.0383022
0.032076 0.00201805 0.0383022
0.0333384 0 0.0372632
0.0332727 0.00209334 0.0372632
0.034504 0 0.0361867
0.0344359 0.00216652 0.0361867
0.0356347 0 0.0350737
0.0355644 0.00223752 0.0350737
0.0367296 0 0.0339255
0.0366571 0.00230627 0.0339255
0.0377875 0 0.032743
0.0377129 0.0023727 0.032743
0.0388073 0 0.0315276
0.0387307 0.00243673 0.0315276
0.0397881 0 0.0302805
0.0397096 0.00249831 0.0302805
0.0407288 0 0.0290028
0.0406484 0.00255738 0.0290028
0.0416285 0 0.027696
0.0415463 0.00261387 0.027696
0.0424863 0 0.0263613
0.0424024 0.00266774 0.0263613
0.0433013 0 0.025
0.0432158 0.00271891 0.025
0.0440727 0 0.0236136
0.0439857 0.00276735 0.0236136
0.0447997 0 0.0222033
0.0447113 0.002813 0.0222033
0.0454816 0 0.0207708
0.0453919 0.00285581 0.0207708
0.0461177 0 0.0193173
0.0460267 0.00289576 0.0193173
0.0467074 0 0.0178443
0.0466152 0.00293278 0.0178443
0.04725 0 0.0163534
0.0471568 0.00296685 0.0163534
0.0477451 0 0.014846
0.0476509 0.00299794 0.014846
0.0481921 0 0.0133237
0.048097 0.00302601 0.0133237
0.0485906 0 0.0117879
0.0484947 0.00305103 0.0117879
0.0489401 0 0.0102403
0.0488436 0.00307298 0.0102403
0.0492404 0 0.00868241
0.0491432 0.00309183 0.00868241
0.0494911 0 0.00711574
0.0493934 0.00310757 0.00711574
0.0496919 0 0.00554191
0.0495939 0.00312018 0.00554191
0.0498427 0 0.0039625
0.0497444 0.00312965 0.0039625
0.0499434 0 0.0023791
0.0498448 0.00313597 0.0023791
0.0499937 0 0.000793298
0.0498951 0.00313913 0.000793298
0.0499937 0 -0.000793298
0.0498951 0.00313913 -0.000793298
0.0499434 0 -0.0023791
0.0498448 0.00313597 -0.0023791
0.0498427 0 -0.0039625
0.0497444 0.00312965 -0.0039625
0.0496919 0 -0.00554191
0.0495939 0.00312018 -0.00554191
0.0494911 0 -0.00711574
0.0493934 0.00310757 -0.00711574
0.0492404 0 -0.00868241
0.0491432 0.00309183 -0.00868241
0.0489401 0 -0.0102403
0.0488436 0.00307298 -0.0102403
0.0485906 0 -0.0117879
0.0484947 0.00305103 -0.0117879
0.0481921 0 -0.0133237
0.048097 0.00302601 -0.0133237
0.0477451 0 -0.014846
[...]
CELL_DATA 19600
SCALARS pressure float
LOOKUP_TABLE default
0
0
0
0
0
0
0
0
0
0
0
0
0
0
0
0
0
0
0
0
0
0
0
0
0
0
0
0
0
0
0
0
0
0
0
0
0
0
0
0
0
0
0
0
0
0
0
0
0
0
0
0
0
0
0
0
0
0
0
0
0
0
0
0
0
0
0
0
0
0
0
0
0
0
0
0
0
0
0
0
0
0
0
0
0
0
0
0
0
0
0
0
0
0
0
0
0
0
0
0
519973
519973
519973
519973
519973
519973
519973
519973
519973
519973
519973
519973
519973
519973
519973
519973
519973
519973
519973
519973
519973
519973
519973
519973
519973
519973
519973
519973
519973
519973
519973
519973
519973
519973
519973
519973
519973
519973
519973
519973
519973
519973
519973
519973
519973
519973
519973
519973
519973
519973
519973
519973
519973
519973
519973
519973
519973
519973
519973
519973
519973
519973
519973
519973
519973
519973
519973
519973
519973
519973
519973
519973
519973
519973
519973
519973
519973
519973
519973
519973
519973
519973
519973
519973
519973
519973
519973
519973
519973
519973
519973
519973
519973
519973
519973
519973
519973
519973
519973
519973
0
0
0
0
0
0
0
0
0
0
0
0
0
0
0
0
0
0
0
0
0
0
0
0
0
0
0
0
0
0
0
0
0
0
0
0
0
0
0
0
0
0
0
0
0
0
0
0
0
0
0
0
0
0
0
0
0
0
0
0
0
0
0
0
0
0
0
0
0
0
0
0
0
0
0
0
0
0
0
0
0
0
0
0
0
0
0
0
0
0
0
0
0
0
0
0
0
0
0
0
0
0
64810.5
0
195047
146043
271454
232728
321688
289795
357289
329990
383637
360020
404011
383188
420178
401596
433363
416551
444200
429000
453337
439450
461071
448265
467788
455975
473530
462598
478607
468458
483034
473591
486977
478171
490512
482287
493604
485883
496447
489218
498977
492205
501221
494876
503328
497358
505150
499576
506883
501624
508413
503505
509806
505186
511079
506762
512241
508226
513296
509535
514232
510748
515099
511853
515866
512868
516575
513816
517201
514669
517750
515439
518253
516158
518660
516781
519041
517369
519354
517888
519604
518339
519810
518744
519962
519093
520065
519390
520113
519632
520116
519828
0
0
0
0
0
0
0
0
0
0
0
0
0
0
0
0
0
0
0
0
0
0
0
0
0
0
0
0
0
0
0
0
0
0
0
0
0
0
0
0
0
0
0
0
0
0
0
0
0
0
0
0
0
0
0
0
0
0
0
0
0
0
0
0
0
0
0
0
0
0
0
0
0
0
0
0
0
0
0
0
0
0
0
0
0
0
0
0
0
0
0
0
0
0
0
0
0
0
0
0
0
0
64811.6
0
194952
146053
271460
232745
321802
289722
357200
330021
383650
360058
404026
383154
420196
401650
433313
416546
444224
429008
453364
439415
461046
448248
467770
455976
473519
462616
478603
468493
483037
473564
486986
478165
490527
482266
493593
485914
496443
489210
498980
492217
501230
494859
503321
497361
505170
499578
506871
501625
508425
503492
509793
505191
511072
506770
512252
508225
513289
509527
514241
510745
515094
511864
515866
512868
516578
513814
517202
514666
517749
515440
518251
516155
518660
516785
519040
517368
519355
517888
519604
518339
519810
518744
519962
519093
520065
519390
520113
519632
520116
519828
0
0
0
0
0
0
0
0
0
0
0
0
0
0
0
0
0
0
0
0
0
0
0
0
0
0
0
0
0
0
0
0
0
0
0
0
0
0
0
0
0
0
0
0
0
0
0
0
0
0
0
0
0
0
0
0
0
0
0
0
0
0
0
0
0
0
0
0
0
0
0
0
0
0
0
0
0
0
0
0
0
0
0
0
0
0
0
0
0
0
0
0
0
0
0
0
0
0
0
0
0
0
64815.4
0
194965
146071
271479
232779
321721
289768
357233
329990
383690
360044
403990
383159
420253
401601
433307
416591
444233
428949
453328
439442
461028
448301
467771
455954
473537
462625
478638
468446
483009
473591
486979
478186
490506
482252
493625
485902
496435
489232
498992
492193
501212
494868
503324
497359
505172
499567
506873
501628
508411
503508
509798
505190
511080
506770
512251
508215
513282
509533
514239
510745
515106
511860
515865
512870
516576
513809
517199
514672
517751
515437
518248
516157
518665
516782
519039
517369
519355
517887
519604
518339
519810
518744
519962
519093
520065
519390
520113
519632
520116
519828
0
0
0
0
0
0
0
0
0
0
0
0
0
0
0
0
0
0
0
0
0
0
0
0
0
0
0
0
0
0
0
0
0
0
0
0
0
0
0
0
0
0
0
0
0
0
0
0
0
0
0
0
0
0
0
0
0
0
0
0
0
0
0
0
0
0
0
0
0
0
0
0
0
0
0
0
0
0
0
0
0
0
0
0
0
0
0
0
0
0
0
0
0
0
0
0
0
0
0
0
0
0
64779.2
0
194989
146026
271518
232755
321772
289749
357201
330004
383675
360077
403996
383133
420202
401616
433354
416574
444173
428953
453356
439432
461082
448275
467749
455972
473547
462642
478591
468458
483037
473610
487001
478135
490491
482290
493613
485890
496457
489210
498967
492219
501222
494867
503322
497338
505161
499592
506875
501623
508427
503496
509797
505190
511080
506768
512242
508226
513287
509535
514238
510743
515102
511855
515868
512871
516571
513810
517206
514669
517748
515437
518251
516159
518662
516783
519041
517368
519354
517888
519604
518339
519810
518744
519962
519093
520065
519390
520113
519632
520116
519828
0
0
0
0
0
0
0
0
0
0
0
0
0
0
0
0
0
0
0
0
0
0
0
0
0
0
0
0
0
0
0
0
0
0
0
0
0
0
0
0
0
0
0
0
0
0
0
0
0
0
0
0
0
0
0
0
0
0
0
0
0
0
0
0
0
0
0
0
0
0
0
0
0
0
0
0
0
0
0
0
0
0
0
0
0
0
0
0
0
0
0
0
0
0
0
0
0
0
0
0
0
0
64837.7
0
194926
146105
271493
232743
321750
289694
357217
330068
383709
360016
403967
383197
420218
401626
433339
416557
444174
429005
453345
439400
461056
448254
467768
455995
473564
462625
478602
468431
483057
473592
486948
478188
490531
482259
493600
485921
496435
489194
498994
492208
501221
494865
503301
497357
505187
499585
506870
501622
508415
503499
509797
505186
511078
506775
512253
508220
513290
509532
514236
510744
515097
511862
515868
512870
516572
513811
517203
514667
517747
515438
518253
516160
518663
516782
519040
517368
519355
517887
519603
518339
519810
518744
519962
519093
520065
519390
520113
519632
520116
519828
0
0
0
0
0
0
0
0
0
0
0
0
0
0
0
0
0
0
0
0
0
0
0
0
0
0
0
0
0
0
0
0
0
0
0
0
0
0
0
0
0
0
0
0
0
0
0
0
0
0
0
0
0
0
0
0
0
0
0
0
0
0
0
0
0
0
0
0
0
0
0
0
0
0
0
0
0
0
0
0
0
0
0
0
0
0
0
0
0
0
0
0
0
0
0
0
0
0
0
0
0
0
64761.4
0
195038
146049
271473
232803
321690
289718
357284
330023
383647
360021
404037
383168
420227
401616
433319
416520
444230
429047
453311
439378
461035
448302
467789
455955
473546
462632
478577
468437
483037
473622
487002
478170
490498
482253
493631
485896
496420
489219
498983
492208
501219
494866
503320
497368
505178
499564
506870
501617
508418
503515
509792
505190
511085
506760
512247
508232
513287
509533
514237
510741
515104
511857
515868
512873
516573
513810
517200
514665
517748
515440
518254
516160
518662
516781
519040
517369
519354
517887
519604
518339
519810
518744
519962
519093
520065
519390
520113
519632
520116
519828
0
0
0
0
0
0
0
0
0
0
0
0
0
0
0
0
0
0
0
0
0
0
0
0
0
0
0
0
0
0
0
0
0
0
0
0
0
0
0
0
0
0
0
0
0
0
0
0
0
0
0
0
0
0
0
0
0
0
0
0
0
0
0
0
0
0
0
0
0
0
0
0
0
0
0
0
0
0
0
0
0
0
0
0
0
0
0
0
0
0
0
0
0
0
0
0
0
0
0
0
0
0
64817.1
0
194963
146106
271544
232651
321720
289732
357234
330107
383650
359978
404002
383223
420220
401566
433280
416554
444276
429042
453290
439388
461084
448299
467748
455939
473555
462652
478580
468438
483070
473600
486984
478164
490493
482254
493606
485922
496445
489197
498984
492209
501220
494864
503331
497365
505158
499567
506865
501634
508434
503496
509796
505202
511070
506768
512259
508215
513288
509541
514234
510740
515099
511859
515871
512869
516572
513809
517198
514669
517751
515441
518253
516156
518660
516783
519041
517368
519354
517887
519604
518339
519810
518744
519962
519093
520065
519390
520113
519632
520116
519828
0
0
0
0
0
0
0
0
0
0
0
0
0
0
0
0
0
0
0
0
0
0
0
0
0
0
0
0
0
0
0
0
0
0
0
0
0
0
0
0
0
0
0
0
0
0
0
0
0
0
0
0
0
0
0
0
0
0
0
0
0
0
0
0
0
0
0
0
0
0
0
0
0
0
0
0
0
0
0
0
0
0
0
0
0
0
0
0
0
0
0
0
0
0
0
0
0
0
0
0
0
0
64791.3
0
195036
146068
271367
232705
321736
289770
357327
329954
383604
360083
404063
383196
420166
401557
433314
416590
444270
429007
453299
439366
461081
448317
467732
455989
473575
462586
478583
468463
483044
473596
486980
478156
490492
482298
493634
485890
496420
489210
498984
492206
501218
494868
503329
497346
505161
499581
506881
501636
508416
503488
509808
505205
511077
506763
512242
508225
513295
509525
514233
510753
515101
511850
515866
512874
516572
513811
517203
514668
517752
515438
518250
516158
518663
516783
519040
517368
519354
517888
519604
518339
519810
518744
519962
519093
520065
519390
520113
519632
520116
519828
0
0
0
0
0
0
0
0
0
0
0
0
0
0
0
0
0
0
0
0
0
0
0
0
0
0
0
0
0
0
0
0
0
0
0
0
0
0
0
0
0
0
0
0
0
0
0
0
0
0
0
0
0
0
0
0
0
0
0
0
0
0
0
0
0
0
0
0
0
0
0
0
0
0
0
0
0
0
0
0
0
0
0
0
0
0
0
0
0
0
0
0
0
0
0
0
0
0
0
0
0
0
64839.7
0
194983
146037
271431
232717
321777
289739
357164
330053
383713
359994
404036
383189
420158
401591
433353
416632
444230
428969
453277
439424
461099
448260
467786
455990
473504
462623
478609
468435
483043
473617
486968
478173
490539
482253
493600
485904
496435
489199
498980
492212
501223
494875
503308
497338
505175
499588
506884
501624
508407
503498
509812
505194
511073
506770
512252
508222
513279
509533
514247
510751
515090
511856
515872
512869
516573
513809
517201
514671
517749
515439
518251
516156
518663
516782
519040
517370
519355
517887
519604
518339
519810
518744
519962
519093
520065
519390
520113
519632
520116
519828
0
0
0
0
0
0
0
0
0
0
0
0
0
0
0
0
0
0
0
0
0
0
0
0
0
0
0
0
0
0
0
0
0
0
0
0
0
0
0
0
0
0
0
0
0
0
0
0
0
0
0
0
0
0
0
0
0
0
0
0
0
0
0
0
0
0
0
0
0
0
0
0
0
0
0
0
0
0
0
0
0
0
0
0
0
0
0
0
0
0
0
0
0
0
0
0
0
0
0
0
0
0
64820.4
0
194940
146054
271449
232770
321739
289736
357267
330000
383624
360019
404028
383212
420190
401611
433398
416558
444192
428970
453339
439428
461040
448279
467784
455980
473545
462616
478580
468454
483063
473613
486986
478161
490491
482262
493615
485915
496423
489195
498988
492218
501228
494874
503301
497346
505181
499574
506870
501628
508418
503504
509800
505184
511080
506781
512249
508214
513287
509535
514244
510749
515097
511855
515867
512872
516572
513811
517204
514668
517749
515436
518249
516158
518662
516782
519042
517368
519354
517888
519604
518339
519810
518744
519962
519093
520065
519390
520113
519632
520116
519828
0
0
0
0
0
0
0
0
0
0
0
0
0
0
0
0
0
0
0
0
0
0
0
0
0
0
0
0
0
0
0
0
0
0
0
0
0
0
0
0
0
0
0
0
0
0
0
0
0
0
0
0
0
0
0
0
0
0
0
0
0
0
0
0
0
0
0
0
0
0
0
0
0
0
0
0
0
0
0
0
0
0
0
0
0
0
0
0
0
0
0
0
0
0
0
0
0
0
0
0
0
0
64820.9
0
194964
146065
271510
232775
321736
289692
357209
330057
383650
360049
404052
383137
420212
401621
433318
416575
444195
428958
453341
439458
461060
448282
467776
455980
473534
462601
478601
468451
483059
473599
486976
478169
490502
482283
493625
485896
496418
489205
498992
492192
501229
494875
503308
497360
505167
499568
506876
501624
508422
503514
509790
505192
511091
506771
512240
508212
513290
509538
514242
510749
515096
511853
515870
512869
516574
513810
517201
514667
517747
515443
518252
516157
518662
516781
519040
517369
519355
517887
519604
518339
519810
518744
519962
519093
520065
519390
520113
519632
520116
519828
0
0
0
0
0
0
0
0
0
0
0
0
0
0
0
0
0
0
0
0
0
0
0
0
0
0
0
0
0
0
0
0
0
0
0
0
0
0
0
0
0
0
0
0
0
0
0
0
0
0
0
0
0
0
0
0
0
0
0
0
0
0
0
0
0
0
0
0
0
0
0
0
0
0
0
0
0
0
0
0
0
0
0
0
0
0
0
0
0
0
0
0
0
0
0
0
0
0
0
0
0
0
64785.7
0
194983
146025
271510
232770
321689
289680
357272
330024
383680
360057
403975
383199
420220
401595
433337
416538
444181
429001
453374
439438
461061
448281
467776
455966
473523
462636
478596
468466
483043
473593
486983
478147
490523
482272
493606
485888
496430
489222
498968
492194
501229
494877
503322
497359
505162
499570
506872
501623
508434
503499
509798
505206
511081
506762
512240
508220
513292
509531
514242
510747
515094
511858
515867
512871
516572
513812
517201
514666
517753
515439
518250
516159
518661
516782
519041
517369
519354
517887
519604
518339
519810
518744
519962
519093
520065
519390
520113
519632
520116
519828
0
0
0
0
0
0
0
0
0
0
0
0
0
0
0
0
0
0
0
0
0
0
0
0
0
0
0
0
0
0
0
0
0
0
0
0
0
0
0
0
0
0
0
0
0
0
0
0
0
0
0
0
0
0
0
0
0
0
0
0
0
0
0
0
0
0
0
0
0
0
0
0
0
0
0
0
0
0
0
0
0
0
0
0
0
0
0
0
0
0
0
0
0
0
0
0
0
0
0
0
0
0
64828.9
0
194931
146028
271506
232769
321672
289678
357236
330023
383693
360061
404036
383197
420196
401595
433299
416538
444224
428999
453353
439439
461061
448281
467761
455966
473558
462636
478611
468466
483038
473592
486961
478147
490511
482271
493599
485889
496447
489222
498969
492194
501231
494876
503322
497359
505163
499569
506870
501623
508418
503499
509813
505206
511072
506762
512246
508219
513285
509531
514240
510747
515100
511858
515869
512871
516574
513812
517199
514666
517749
515439
518253
516159
518662
516782
519040
517369
519354
517887
519604
518339
519810
518744
519962
519093
520065
519390
520113
519632
520116
519828
0
0
0
0
0
0
0
0
0
0
0
0
0
0
0
0
0
0
0
0
0
0
0
0
0
0
0
0
0
0
0
0
0
0
0
0
0
0
0
0
0
0
0
0
0
0
0
0
0
0
0
0
0
0
0
0
0
0
0
0
0
0
0
0
0
0
0
0
0
0
0
0
0
0
0
0
0
0
0
0
0
0
0
0
0
0
0
0
0
0
0
0
0
0
0
0
0
0
0
0
0
0
64828.9
0
194927
146067
271508
232772
321674
289693
357237
330056
383689
360048
404038
383140
420196
401618
433299
416574
444227
428958
453352
439459
461061
448281
467761
455981
473558
462602
478611
468451
483038
473597
486960
478169
490512
482283
493598
485895
496447
489205
498969
492193
501231
494875
503321
497359
505164
499568
506870
501625
508418
503514
509813
505192
511071
506770
512246
508213
513285
509537
514240
510749
515099
511853
515869
512869
516574
513810
517199
514667
517749
515443
518252
516157
518662
516781
519040
517369
519354
517887
519604
518339
519810
518744
519962
519093
520065
519390
520113
519632
520116
519828
0
0
0
0
0
0
0
0
0
0
0
0
0
0
0
0
0
0
0
0
0
0
0
0
0
0
0
0
0
0
0
0
0
0
0
0
0
0
0
0
0
0
0
0
0
0
0
0
0
0
0
0
0
0
0
0
0
0
0
0
0
0
0
0
0
0
0
0
0
0
0
0
0
0
0
0
0
0
0
0
0
0
0
0
0
0
0
0
0
0
0
0
0
0
0
0
0
0
0
0
0
0
64787.2
0
194980
146053
271513
232772
321688
289735
357273
329998
383681
360021
403971
383212
420223
401610
433337
416556
444181
428972
453373
439427
461063
448280
467775
455981
473522
462612
478596
468456
483044
473612
486983
478162
490523
482263
493606
485914
496430
489194
498966
492217
501229
494875
503323
497345
505162
499573
506871
501629
508433
503503
509799
505184
511080
506781
512239
508213
513292
509535
514242
510749
515094
511855
515866
512872
516572
513811
517200
514668
517754
515437
518250
516158
518661
516782
519041
517368
519354
517888
519604
518339
519810
518744
519962
519093
520065
519390
520113
519632
520116
519828
0
0
0
0
0
0
0
0
0
0
0
0
0
0
0
0
0
0
0
0
0
0
0
0
0
0
0
0
0
0
0
0
0
0
0
0
0
0
0
0
0
0
0
0
0
0
0
0
0
0
0
0
0
0
0
0
0
0
0
0
0
0
0
0
0
0
0
0
0
0
0
0
0
0
0
0
0
0
0
0
0
0
0
0
0
0
0
0
0
0
0
0
0
0
0
0
0
0
0
0
0
0
64820
0
194966
146034
271508
232719
321737
289738
357211
330052
383649
359996
404051
383190
420213
401590
433320
416633
444194
428968
453341
439426
461060
448260
467775
455988
473537
462624
478599
468436
483060
473617
486974
478172
490501
482252
493626
485905
496419
489199
498993
492213
501228
494874
503309
497339
505168
499587
506875
501623
508423
503499
509790
505193
511091
506770
512240
508222
513290
509533
514242
510751
515096
511856
515870
512869
516573
513809
517201
514671
517747
515439
518252
516156
518662
516782
519039
517370
519355
517887
519604
518339
519810
518744
519962
519093
520065
519390
520113
519632
520116
519828
0
0
0
0
0
0
0
0
0
0
0
0
0
0
0
0
0
0
0
0
0
0
0
0
0
0
0
0
0
0
0
0
0
0
0
0
0
0
0
0
0
0
0
0
0
0
0
0
0
0
0
0
0
0
0
0
0
0
0
0
0
0
0
0
0
0
0
0
0
0
0
0
0
0
0
0
0
0
0
0
0
0
0
0
0
0
0
0
0
0
0
0
0
0
0
0
0
0
0
0
0
0
64820.6
0
194943
146067
271446
232704
321740
289772
357269
329957
383622
360079
404027
383198
420191
401559
433398
416590
444193
429005
453338
439366
461040
448317
467785
455991
473544
462584
478579
468464
483063
473597
486987
478154
490491
482299
493615
485890
496424
489210
498987
492205
501229
494869
503301
497345
505182
499581
506870
501636
508417
503488
509800
505205
511080
506763
512249
508225
513287
509525
514244
510754
515097
511849
515867
512874
516572
513811
517205
514668
517749
515438
518249
516158
518662
516783
519042
517368
519354
517888
519604
518339
519810
518744
519962
519093
520065
519390
520113
519632
520116
519828
0
0
0
0
0
0
0
0
0
0
0
0
0
0
0
0
0
0
0
0
0
0
0
0
0
0
0
0
0
0
0
0
0
0
0
0
0
0
0
0
0
0
0
0
0
0
0
0
0
0
0
0
0
0
0
0
0
0
0
0
0
0
0
0
0
0
0
0
0
0
0
0
0
0
0
0
0
0
0
0
0
0
0
0
0
0
0
0
0
0
0
0
0
0
0
0
0
0
0
0
0
0
64839.2
0
194985
146106
271432
232650
321774
289735
357161
330106
383717
359978
404034
383223
420156
401566
433353
416552
444231
429043
453278
439387
461099
448300
467785
455939
473506
462652
478608
468439
483042
473598
486970
478166
490538
482253
493600
485923
496435
489196
498981
492210
501222
494864
503308
497365
505175
499567
506883
501634
508407
503496
509812
505202
511072
506767
512252
508215
513279
509540
514247
510740
515091
511859
515872
512869
516573
513810
517201
514669
517749
515441
518251
516157
518663
516783
519040
517368
519355
517887
519604
518339
519810
518744
519962
519093
520065
519390
520113
519632
520116
519828
0
0
0
0
0
0
0
0
0
0
0
0
0
0
0
0
0
0
0
0
0
0
0
0
0
0
0
0
0
0
0
0
0
0
0
0
0
0
0
0
0
0
0
0
0
0
0
0
0
0
0
0
0
0
0
0
0
0
0
0
0
0
0
0
0
0
0
0
0
0
0
0
0
0
0
0
0
0
0
0
0
0
0
0
0
0
0
0
0
0
0
0
0
0
0
0
0
0
0
0
0
0
64790.5
0
195036
146052
271369
232801
321733
289721
357327
330022
383605
360020
404063
383166
420165
401618
433316
416519
444268
429049
453300
439378
461080
448302
467733
455954
473574
462634
478582
468435
483046
473623
486978
478170
490493
482254
493633
485896
496421
489220
498984
492209
501218
494866
503328
497368
505161
499564
506881
501618
508415
503515
509809
505190
511078
506760
512241
508232
513295
509533
514233
510741
515100
511857
515866
512873
516572
513810
517203
514665
517752
515440
518250
516160
518663
516781
519040
517369
519354
517887
519604
518339
519810
518744
519962
519093
520065
519390
520113
519632
520116
519828
0
0
0
0
0
0
0
0
0
0
0
0
0
0
0
0
0
0
0
0
0
0
0
0
0
0
0
0
0
0
0
0
0
0
0
0
0
0
0
0
0
0
0
0
0
0
0
0
0
0
0
0
0
0
0
0
0
0
0
0
0
0
0
0
0
0
0
0
0
0
0
0
0
0
0
0
0
0
0
0
0
0
0
0
0
0
0
0
0
0
0
0
0
0
0
0
0
0
0
0
0
0
64816.9
0
194959
146108
271547
232741
321717
289693
357235
330068
383650
360018
404005
383198
420217
401625
433280
416557
444274
429005
453290
439399
461083
448255
467750
455993
473554
462624
478581
468433
483069
473591
486984
478188
490492
482258
493607
485920
496444
489195
498983
492208
501220
494865
503331
497357
505158
499584
506864
501623
508434
503499
509796
505186
511070
506775
512259
508220
513288
509532
514234
510744
515099
511862
515871
512870
516572
513810
517198
514667
517751
515438
518253
516160
518660
516782
519041
517368
519354
517887
519604
518339
519810
518744
519962
519093
520065
519390
520113
519632
520116
519828
0
0
0
0
0
0
0
0
0
0
0
0
0
0
0
0
0
0
0
0
0
0
0
0
0
0
0
0
0
0
0
0
0
0
0
0
0
0
0
0
0
0
0
0
0
0
0
0
0
0
0
0
0
0
0
0
0
0
0
0
0
0
0
0
0
0
0
0
0
0
0
0
0
0
0
0
0
0
0
0
0
0
0
0
0
0
0
0
0
0
0
0
0
0
0
0
0
0
0
0
0
0
64763.4
0
195034
146024
271476
232757
321690
289747
357284
330006
383645
360076
404036
383132
420228
401616
433319
416576
444230
428952
453312
439431
461034
448275
467791
455973
473547
462642
478575
468457
483037
473611
487003
478135
490497
482291
493632
485890
496418
489210
498983
492219
501219
494867
503320
497339
505179
499592
506869
501622
508418
503496
509792
505190
511085
506768
512247
508226
513287
509535
514237
510743
515104
511855
515868
512871
516573
513810
517200
514669
517748
515437
518254
516159
518662
516783
519040
517368
519354
517888
519604
518339
519810
518744
519962
519093
520065
519390
520113
519632
520116
519828
0
0
0
0
0
0
0
0
0
0
0
0
0
0
0
0
0
0
0
0
0
0
0
0
0
0
0
0
0
0
0
0
0
0
0
0
0
0
0
0
0
0
0
0
0
0
0
0
0
0
0
0
0
0
0
0
0
0
0
0
0
0
0
0
0
0
0
0
0
0
0
0
0
0
0
0
0
0
0
0
0
0
0
0
0
0
0
0
0
0
0
0
0
0
0
0
0
0
0
0
0
0
64838.1
0
194928
146071
271490
232779
321752
289768
357215
329991
383710
360044
403968
383159
420218
401601
433337
416591
444177
428950
453345
439442
461056
448301
467767
455955
473564
462625
478603
468446
483057
473591
486948
478186
490531
482252
493601
485902
496435
489231
498994
492193
501221
494868
503301
497359
505187
499567
506870
501628
508415
503508
509797
505190
511078
506770
512253
508215
513290
509533
514236
510745
515097
511860
515869
512870
516573
513809
517203
514672
517747
515437
518253
516158
518663
516782
519040
517369
519355
517887
519603
518339
519810
518744
519962
519093
520065
519390
520113
519632
520116
519828
0
0
0
0
0
0
0
0
0
0
0
0
0
0
0
0
0
0
0
0
0
0
0
0
0
0
0
0
0
0
0
0
0
0
0
0
0
0
0
0
0
0
0
0
0
0
0
0
0
0
0
0
0
0
0
0
0
0
0
0
0
0
0
0
0
0
0
0
0
0
0
0
0
0
0
0
0
0
0
0
0
0
0
0
0
0
0
0
0
0
0
0
0
0
0
0
0
0
0
0
0
0
64778.9
0
194989
146053
271519
232745
321773
289722
357200
330021
383675
360058
403996
383154
420202
401649
433355
416546
444172
429008
453356
439415
461083
448248
467748
455976
473547
462616
478590
468492
483037
473564
487001
478165
490491
482266
493613
485914
496457